<?xml version="1.0" encoding="UTF-8" ?>
<psml version="1.1" energy_unit="hartree" length_unit="bohr"
 uuid="cec02e40-1d5f-11e8-43b0-6240bfa7460b"
 xmlns="http://esl.cecam.org/PSML/ns/1.1">
<provenance creator="ONCVPSP-3.3.0+psml-3.3.0-73 (scalar-relativistic)"
 date="2018-03-01">
<annotation action="semilocal-pseudopotential-generation"
 action-cont="projectors-generation" />
<input-file name="oncvpsp-input">
<![CDATA[# atsym z nc nv iexc psfile
Ni 28 3 4 -116133 upf
# n l f
1 0 2.0
2 0 2.0
2 1 6.0
3 0 2.0
3 1 6.0
3 2 8.0
4 0 2.0
# lmax
2
# l rc ep ncon nbas qcut
0 1.25 0.0 4 8 9.7
1 1.35 0.0 4 8 9.7
2 1.65 0.0 4 8 9.7
# lloc lpopt rc5 dvloc0
4 5 1.2 0.0
# l nproj debl
0 2 1.0
1 2 2.8
2 2 1.0
# icmod fcfact
3 3 1.7
# epsh1 epsh2 depsh
-12.0 12.0 0.02
# rlmax drl
6.0 0.01
 0
]]>
</input-file>
</provenance>
<pseudo-atom-spec atomic-label="Ni" atomic-number="28" z-pseudo="18"
 flavor="Hamann&apos;s oncvpsp" relativity="scalar" spin-dft="no"
 core-corrections="yes">
<annotation pseudo-energy="-163.795720265" />
<exchange-correlation>
<annotation oncvpsp-xc-code="-116133" oncvpsp-xc-type="libxc-interface" />
<libxc-info number-of-functionals="2">
<functional name="Perdew, Burke &amp; Ernzerhof SOL (GGA)" type="exchange"
 id="116" />
<functional name="Perdew, Burke &amp; Ernzerhof SOL (GGA)" type="correlation"
 id="133" />
</libxc-info>
</exchange-correlation>
<valence-configuration total-valence-charge="18">
<shell n="3" l="s" occupation="2" />
<shell n="3" l="p" occupation="6" />
<shell n="3" l="d" occupation="8" />
<shell n="4" l="s" occupation="2" />
</valence-configuration>
</pseudo-atom-spec>
<grid npts="457">
<annotation type="sampled from oncvpsp log grid"
 recipe="r(i:1..N) = r1*exp(a*(i-1)) + r=0; resampled"
 recipe-cont="r1: scale; a: step" scale="0.178571428571E-04"
 step="0.119285708653E-01" delta="0.500000000000E-02" rmax="44.1127774257" />
<grid-data>
  0.000000000000E+00  5.037260227087E-03  1.006153199362E-02  1.509390240677E-02
  2.009712055657E-02  2.520946187690E-02  3.051067215696E-02  3.562857378909E-02
  4.111161976253E-02  4.632012396247E-02  5.156966681787E-02  5.673334959985E-02
  6.241407314470E-02  6.784941587428E-02  7.288349463671E-02  7.829107623126E-02
  8.409987265294E-02  8.926843081494E-02  9.475463504026E-02  1.005780070250E-01
  1.067592682175E-01  1.119766932335E-01  1.174490986765E-01  1.231889456778E-01
  1.292093043559E-01  1.355238835779E-01  1.421470621764E-01  1.473260095757E-01
  1.526936453359E-01  1.582568440774E-01  1.640227308887E-01  1.699986904517E-01
  1.761923764999E-01  1.826117216210E-01  1.892649474162E-01  1.961605750303E-01
  2.033074360652E-01  2.107146838912E-01  2.158021792191E-01  2.210125070342E-01
  2.263486330040E-01  2.318135943992E-01  2.374105018224E-01  2.431425409784E-01
  2.490129744878E-01  2.550251437438E-01  2.611824708144E-01  2.674884603897E-01
  2.739467017774E-01  2.805608709451E-01  2.873347326132E-01  2.942721423974E-01
  3.013770490034E-01  3.086534964746E-01  3.161056264935E-01  3.237376807395E-01
  3.315540033033E-01  3.395590431590E-01  3.477573566971E-01  3.561536103172E-01
  3.647525830847E-01  3.735591694507E-01  3.825783820379E-01  3.918153544938E-01
  4.012753444127E-01  4.109637363282E-01  4.208860447781E-01  4.259366773154E-01
  4.310479174432E-01  4.362204924526E-01  4.414551383620E-01  4.467526000223E-01
  4.521136312226E-01  4.575389947973E-01  4.630294627348E-01  4.685858162877E-01
  4.742088460831E-01  4.798993522361E-01  4.856581444629E-01  4.914860421965E-01
  4.973838747028E-01  5.033524811993E-01  5.093927109737E-01  5.155054235054E-01
  5.216914885874E-01  5.279517864505E-01  5.342872078879E-01  5.406986543825E-01
  5.471870382351E-01  5.537532826939E-01  5.603983220863E-01  5.671231019513E-01
  5.739285791747E-01  5.808157221248E-01  5.877855107903E-01  5.948389369198E-01
  6.019770041628E-01  6.092007282128E-01  6.165111369513E-01  6.239092705948E-01
  6.313961818419E-01  6.389729360240E-01  6.466406112563E-01  6.544002985914E-01
  6.622531021745E-01  6.702001394006E-01  6.782425410734E-01  6.863814515662E-01
  6.946180289850E-01  7.029534453329E-01  7.113888866768E-01  7.199255533170E-01
  7.285646599568E-01  7.373074358763E-01  7.461551251068E-01  7.551089866081E-01
  7.641702944473E-01  7.733403379807E-01  7.826204220365E-01  7.920118671009E-01
  8.015160095061E-01  8.111342016202E-01  8.208678120397E-01  8.307182257841E-01
  8.406868444935E-01  8.507750866275E-01  8.609843876670E-01  8.713162003190E-01
  8.817719947228E-01  8.923532586595E-01  9.030614977634E-01  9.138982357366E-01
  9.248650145654E-01  9.359633947402E-01  9.471949554771E-01  9.585612949428E-01
  9.700640304821E-01  9.817047988479E-01  9.934852564341E-01  1.005407079511E+00
  1.017471964465E+00  1.029681628039E+00  1.042037807575E+00  1.054542261266E+00
  1.067196768402E+00  1.080003129622E+00  1.092963167178E+00  1.106078725184E+00
  1.119351669886E+00  1.132783889925E+00  1.146377296604E+00  1.160133824163E+00
  1.174055430053E+00  1.188144095214E+00  1.202401824356E+00  1.216830646249E+00
  1.231432614004E+00  1.246209805372E+00  1.261164323036E+00  1.276298294913E+00
  1.291613874451E+00  1.307113240945E+00  1.322798599836E+00  1.338672183034E+00
  1.354736249231E+00  1.370993084221E+00  1.387445001232E+00  1.404094341247E+00
  1.420943473342E+00  1.437994795022E+00  1.455250732562E+00  1.472713741353E+00
  1.490386306249E+00  1.508270941924E+00  1.526370193227E+00  1.544686635546E+00
  1.563222875173E+00  1.581981549675E+00  1.600965328271E+00  1.620176912210E+00
  1.639619035157E+00  1.659294463578E+00  1.679205997141E+00  1.699356469107E+00
  1.719748746736E+00  1.740385731697E+00  1.761270360478E+00  1.782405604803E+00
  1.803794472061E+00  1.825440005726E+00  1.847345285794E+00  1.869513429224E+00
  1.891947590375E+00  1.914650961459E+00  1.937626772997E+00  1.960878294273E+00
  1.984408833804E+00  2.008221739809E+00  2.032320400687E+00  2.056708245495E+00
  2.081388744441E+00  2.106365409375E+00  2.131641794287E+00  2.157221495819E+00
  2.183108153768E+00  2.209305451614E+00  2.235817117033E+00  2.262646922437E+00
  2.289798685507E+00  2.317276269733E+00  2.345083584969E+00  2.373224587989E+00
  2.401703283045E+00  2.430523722442E+00  2.459690007111E+00  2.489206287196E+00
  2.519076762643E+00  2.549305683794E+00  2.579897352000E+00  2.610856120224E+00
  2.642186393666E+00  2.673892630390E+00  2.705979341955E+00  2.738451094059E+00
  2.771312507187E+00  2.804568257274E+00  2.838223076361E+00  2.872281753277E+00
  2.906749134316E+00  2.941630123928E+00  2.976929685415E+00  3.012652841640E+00
  3.048804675740E+00  3.085390331849E+00  3.122415015831E+00  3.159883996021E+00
  3.197802603973E+00  3.236176235221E+00  3.275010350044E+00  3.314310474244E+00
  3.354082199935E+00  3.394331186334E+00  3.435063160570E+00  3.476283918497E+00
  3.517999325519E+00  3.560215317425E+00  3.602937901235E+00  3.646173156049E+00
  3.689927233922E+00  3.734206360729E+00  3.779016837058E+00  3.824365039102E+00
  3.870257419572E+00  3.916700508607E+00  3.963700914710E+00  4.011265325686E+00
  4.059400509595E+00  4.108113315710E+00  4.157410675498E+00  4.207299603604E+00
  4.257787198847E+00  4.308880645234E+00  4.360587212976E+00  4.412914259532E+00
  4.465869230647E+00  4.519459661414E+00  4.573693177351E+00  4.628577495479E+00
  4.684120425425E+00  4.740329870530E+00  4.797213828977E+00  4.854780394924E+00
  4.913037759664E+00  4.971994212779E+00  5.031658143333E+00  5.092038041053E+00
  5.153142497545E+00  5.214980207516E+00  5.277559970006E+00  5.340890689646E+00
  5.404981377922E+00  5.469841154457E+00  5.535479248311E+00  5.601904999290E+00
  5.669127859282E+00  5.737157393593E+00  5.806003282316E+00  5.875675321704E+00
  5.946183425565E+00  6.017537626671E+00  6.089748078191E+00  6.162825055130E+00
  6.236778955791E+00  6.311620303261E+00  6.387359746900E+00  6.464008063863E+00
  6.541576160629E+00  6.620075074557E+00  6.699515975451E+00  6.779910167157E+00
  6.861269089162E+00  6.943604318232E+00  7.026927570051E+00  7.111250700892E+00
  7.196585709303E+00  7.282944737814E+00  7.370340074668E+00  7.458784155564E+00
  7.548289565431E+00  7.638869040216E+00  7.730535468698E+00  7.823301894323E+00
  7.917181517055E+00  8.012187695259E+00  8.108333947603E+00  8.205633954974E+00
  8.304101562433E+00  8.403750781183E+00  8.504595790557E+00  8.606650940043E+00
  8.709930751324E+00  8.814449920340E+00  8.920223319384E+00  9.027265999217E+00
  9.135593191207E+00  9.245220309502E+00  9.356162953216E+00  9.468436908654E+00
  9.582058151558E+00  9.697042849377E+00  9.813407363569E+00  9.931168251932E+00
  1.005034227096E+01  1.017094637821E+01  1.029299773475E+01  1.041651370756E+01
  1.054151187205E+01  1.066801001452E+01  1.079602613469E+01  1.092557844831E+01
  1.105668538969E+01  1.118936561436E+01  1.132363800174E+01  1.145952165776E+01
  1.159703591765E+01  1.173620034866E+01  1.187703475285E+01  1.201955916988E+01
  1.216379387992E+01  1.230975940648E+01  1.245747651936E+01  1.260696623759E+01
  1.275824983244E+01  1.291134883043E+01  1.306628501639E+01  1.322308043659E+01
  1.338175740183E+01  1.354233849065E+01  1.370484655254E+01  1.386930471117E+01
  1.403573636770E+01  1.420416520412E+01  1.437461518657E+01  1.454711056880E+01
  1.472167589563E+01  1.489833600638E+01  1.507711603845E+01  1.525804143092E+01
  1.544113792809E+01  1.562643158322E+01  1.581394876222E+01  1.600371614737E+01
  1.619576074114E+01  1.639010987003E+01  1.658679118847E+01  1.678583268273E+01
  1.698726267493E+01  1.719110982702E+01  1.739740314495E+01  1.760617198269E+01
  1.781744604648E+01  1.803125539904E+01  1.824763046383E+01  1.846660202939E+01
  1.868820125375E+01  1.891245966879E+01  1.913940918482E+01  1.936908209503E+01
  1.960151108017E+01  1.983672921314E+01  2.007476996369E+01  2.031566720326E+01
  2.055945520970E+01  2.080616867221E+01  2.105584269628E+01  2.130851280864E+01
  2.156421496234E+01  2.182298554189E+01  2.208486136839E+01  2.234987970481E+01
  2.261807826127E+01  2.288949520040E+01  2.316416914281E+01  2.344213917252E+01
  2.372344484259E+01  2.400812618070E+01  2.429622369487E+01  2.458777837921E+01
  2.488283171976E+01  2.518142570040E+01  2.548360280880E+01  2.578940604251E+01
  2.609887891502E+01  2.641206546200E+01  2.672901024754E+01  2.704975837051E+01
  2.737435547096E+01  2.770284773661E+01  2.803528190945E+01  2.837170529236E+01
  2.871216575587E+01  2.905671174494E+01  2.940539228588E+01  2.975825699331E+01
  3.011535607723E+01  3.047674035016E+01  3.084246123436E+01  3.121257076917E+01
  3.158712161840E+01  3.196616707782E+01  3.234976108276E+01  3.273795821575E+01
  3.313081371434E+01  3.352838347891E+01  3.393072408066E+01  3.433789276963E+01
  3.474994748286E+01  3.516694685266E+01  3.558895021489E+01  3.601601761747E+01
  3.644820982888E+01  3.688558834682E+01  3.732821540699E+01  3.777615399187E+01
  3.822946783977E+01  3.868822145385E+01  3.915248011129E+01  3.962230987263E+01
  4.009777759110E+01  4.057895092220E+01  4.106589833326E+01  4.155868911326E+01
  4.205739338262E+01  4.256208210321E+01  4.307282708845E+01  4.358970101351E+01
  4.411277742567E+01
</grid-data>
</grid>
<valence-charge total-charge="18" is-unscreening-charge="yes"
 rescaled-to-z-pseudo="no">
<radfunc>
<data npts="457">
  1.580441454738E+01  1.581304976730E+01  1.583885854674E+01  1.588190065075E+01
  1.594171110414E+01  1.602029739527E+01  1.612035888973E+01  1.623480608525E+01
  1.637674723320E+01  1.652996213745E+01  1.670235101917E+01  1.688935179144E+01
  1.711483145994E+01  1.734971065069E+01  1.758372359571E+01  1.785249639085E+01
  1.816096618302E+01  1.845234120889E+01  1.877871020395E+01  1.914399515056E+01
  1.955247978607E+01  1.991348753558E+01  2.030767287044E+01  2.073774487215E+01
  2.120655894403E+01  2.171710655582E+01  2.227249919811E+01  2.272040040783E+01
  2.319670942620E+01  2.370281633520E+01  2.424011008861E+01  2.480996392864E+01
  2.541371787658E+01  2.605265789379E+01  2.672799127353E+01  2.744081779171E+01
  2.819209611604E+01  2.898260495127E+01  2.953168993168E+01  3.009856103595E+01
  3.068325492553E+01  3.128573842023E+01  3.190589976834E+01  3.254353924467E+01
  3.319835906142E+01  3.386995258352E+01  3.455779284858E+01  3.526122040181E+01
  3.597943046909E+01  3.671145950617E+01  3.745617118024E+01  3.821224186064E+01
  3.897814572027E+01  3.975213957697E+01  4.053224763633E+01  4.131624633317E+01
  4.210164950972E+01  4.288569421256E+01  4.366532743970E+01  4.443719422160E+01
  4.519762747613E+01  4.594264013632E+01  4.666792011019E+01  4.736882869230E+01
  4.804040310566E+01  4.867736390713E+01  4.927412803663E+01  4.955561327823E+01
  4.982482832744E+01  5.008099979281E+01  5.032334031619E+01  5.055104986866E+01
  5.076331719278E+01  5.095932139684E+01  5.113823370679E+01  5.129921938078E+01
  5.144143979089E+01  5.156405467594E+01  5.166622456844E+01  5.174711339805E+01
  5.180589127290E+01  5.184173743885E+01  5.185384341586E+01  5.184141630908E+01
  5.180368229071E+01  5.173989024733E+01  5.164931558535E+01  5.153126418556E+01
  5.138507649544E+01  5.121013174609E+01  5.100585227797E+01  5.077170795764E+01
  5.050722066474E+01  5.021196882628E+01  4.988559197245E+01  4.952779528554E+01
  4.913835411085E+01  4.871711839578E+01  4.826401702085E+01  4.777906198357E+01
  4.726235239404E+01  4.671407823875E+01  4.613452386721E+01  4.552407115442E+01
  4.488320229081E+01  4.421250215052E+01  4.351266018849E+01  4.278447181699E+01
  4.202883921292E+01  4.124677150899E+01  4.043938432354E+01  3.960789858744E+01
  3.875363862965E+01  3.787802948835E+01  3.698259341970E+01  3.606894558313E+01
  3.513878888937E+01  3.419390800596E+01  3.323616252404E+01  3.226747930052E+01
  3.128984400018E+01  3.030529187411E+01  2.931589782220E+01  2.832376580015E+01
  2.733101764338E+01  2.633978139250E+01  2.535217921705E+01  2.437031504523E+01
  2.339626201796E+01  2.243204989458E+01  2.147965254548E+01  2.054097567279E+01
  1.961784490427E+01  1.871199440721E+01  1.782505616821E+01  1.695855008136E+01
  1.611387498064E+01  1.529230074344E+01  1.449496157960E+01  1.372285060561E+01
  1.297681578588E+01  1.225755730320E+01  1.156562639816E+01  1.090142569404E+01
  1.026521099885E+01  9.657094550883E+00  9.077049649294E+00  8.524916586555E+00
  8.000409777013E+00  7.503125954719E+00  7.032553295640E+00  6.588081304414E+00
  6.169011294629E+00  5.774567284458E+00  5.403907126723E+00  5.056133694052E+00
  4.730305945761E+00  4.425449713037E+00  4.140568053075E+00  3.874651255373E+00
  3.626686957744E+00  3.395669761100E+00  3.180608074941E+00  2.980530186506E+00
  2.794489361044E+00  2.621567757725E+00  2.460878323034E+00  2.311565719508E+00
  2.172809683920E+00  2.043827743658E+00  1.923877440985E+00  1.812258052253E+00
  1.708311835580E+00  1.611424838581E+00  1.521027294462E+00  1.436593630772E+00
  1.357642110786E+00  1.283734123392E+00  1.214473133861E+00  1.149503305418E+00
  1.088507800354E+00  1.031206769684E+00  9.773537384478E-01  9.267266832624E-01
  8.791164800110E-01  8.343264454334E-01  7.921717281997E-01  7.524787945251E-01
  7.150849163038E-01  6.798376640017E-01  6.465944062932E-01  6.152218181932E-01
  5.855953992084E-01  5.575990028220E-01  5.311243784317E-01  5.060707266785E-01
  4.823442689376E-01  4.598578315892E-01  4.385304455480E-01  4.182869614010E-01
  3.990576803881E-01  3.807780013543E-01  3.633880837059E-01  3.468325263175E-01
  3.310600622587E-01  3.160232691407E-01  3.016782948194E-01  2.879845981398E-01
  2.749047043568E-01  2.624039748298E-01  2.504503905511E-01  2.390143490422E-01
  2.280684741299E-01  2.175874380950E-01  2.075477956758E-01  1.979278294015E-01
  1.887074057258E-01  1.798678414320E-01  1.713917797841E-01  1.632630759070E-01
  1.554666908843E-01  1.479885940763E-01  1.408156731742E-01  1.339356515183E-01
  1.273370122253E-01  1.210089286886E-01  1.149412010280E-01  1.091241980875E-01
  1.035488045948E-01  9.820637311644E-02  9.308868045956E-02  8.818788818835E-02
  8.349650694325E-02  7.900736426642E-02  7.471357565502E-02  7.060851858032E-02
  6.668580922711E-02  6.293928172355E-02  5.936296964730E-02  5.595108960875E-02
  5.269802672660E-02  4.959832182538E-02  4.664666019813E-02  4.383786179027E-02
  4.116687267352E-02  3.862875768458E-02  3.621869415111E-02  3.393196654430E-02
  3.176396203205E-02  2.971016682109E-02  2.776616322084E-02  2.592762736159E-02
  2.419032750418E-02  2.255012288236E-02  2.100296302113E-02  1.954488747612E-02
  1.817202594003E-02  1.688059866207E-02  1.566691712666E-02  1.452738493740E-02
  1.345849885244E-02  1.245684991779E-02  1.151912464650E-02  1.064210619292E-02
  9.822675474373E-03  9.057812195278E-03  8.344595733427E-03  7.680205852346E-03
  7.061923209160E-03  6.487129632898E-03  5.953308153959E-03  5.458042771341E-03
  4.999017949925E-03  4.574017845590E-03  4.180925261005E-03  3.817720339566E-03
  3.482479008990E-03  3.173371189547E-03  2.888658784758E-03  2.626693474618E-03
  2.385914333040E-03  2.164845292252E-03  1.962092477433E-03  1.776341434929E-03
  1.606354276983E-03  1.450966765232E-03  1.309085354141E-03  1.179684214255E-03
  1.061802253699E-03  9.545401546874E-04  8.570574401253E-04  7.685695835967E-04
  6.883451742979E-04  6.157031467231E-04  5.500100832566E-04  4.906775962485E-04
  4.371597946908E-04  3.889508392786E-04  3.455825884487E-04  3.066223369385E-04
  2.716706475047E-04  2.403592756825E-04  2.123491868333E-04  1.873286642308E-04
  1.650115065374E-04  1.451353127334E-04  1.274598523425E-04  1.117655186574E-04
  9.785186257523E-05  8.553620460482E-05  7.465232258591E-05  6.504921266262E-05
  5.658992106417E-05  4.915044426512E-05  4.261869511725E-05  3.689353256389E-05
  3.188385256340E-05  2.750773786082E-05  2.369166425535E-05  2.036976101824E-05
  1.748312312048E-05  1.497917293538E-05  1.281106908813E-05  1.093716013460E-05
  9.320480766456E-06  7.928288259560E-06  6.731636909233E-06  5.704988229023E-06
  4.825854730182E-06  4.074475146520E-06  3.433519023695E-06  2.887818656243E-06
  2.424126399573E-06  2.030895575627E-06  1.698082844812E-06  1.416971077581E-06
  1.180009858155E-06  9.806736581574E-07  8.133344686214E-07  6.731487389717E-07
  5.559571336620E-07  4.581957315816E-07  3.768175584999E-07  3.092233868575E-07
  2.532008950376E-07  2.068713168072E-07  1.686427729935E-07  1.371695505350E-07
  1.113166600478E-07  9.012906528227E-08  7.280503612440E-08  5.867313108075E-08
  4.717236555162E-08  3.783516869938E-08  3.027277448394E-08  2.416273159629E-08
  1.923825273509E-08  1.527915611430E-08  1.210418144644E-08  9.564489110213E-09
  7.538174977633E-09  5.925654641139E-09  4.645789740419E-09  3.632645930066E-09
  2.832786937205E-09  2.203022308096E-09  1.708538001374E-09  1.321349110551E-09
  1.019022836889E-09  7.836275229163E-10  6.008702232351E-10  4.593910493607E-10
  3.501874853465E-10  2.661461277022E-10  2.016629431051E-10  1.522722181548E-10
  1.146743080124E-10  8.608965214762E-11  6.442572517885E-11  4.805904812093E-11
  3.573404903212E-11  2.648280703444E-11  1.956157462568E-11  1.440073548857E-11
  1.056548500933E-11  7.725039550789E-12  5.628606277642E-12  4.086693445251E-12
  2.956624666905E-12  2.131350878738E-12  1.530839894622E-12  1.095473448826E-12
  7.810020369204E-13  5.547041588521E-13  3.924732808149E-13  2.766167116726E-13
  1.941987161824E-13  1.357980838259E-13  9.458009539542E-14  6.560604945182E-14
  4.532157728101E-14  3.117897464478E-14  2.135958236952E-14  1.457055062970E-14
  9.896675849642E-15  6.692841257045E-15  4.506266247438E-15  3.020545531830E-15
  2.015547001921E-15  1.338800865198E-15  8.851783191952E-16  5.825231788136E-16
  3.815390098713E-16  2.487043151385E-16  1.613323156932E-16  1.041424586011E-16
  6.689245382209E-17  4.275071589676E-17  2.718319034120E-17  1.719577368138E-17
  1.082132509271E-17  6.774066278537E-18  4.217948069499E-18  2.612209405090E-18
  1.608946375039E-18  9.855382349494E-19  6.003090288084E-19  3.635938884560E-19
  2.189621427466E-19  1.310998978615E-19  7.803443038282E-20  4.617321631775E-20
  2.715707039246E-20  1.587571203089E-20  9.223784870676E-21  5.325721167885E-21
  3.055685072051E-21  0.000000000000E+00  0.000000000000E+00  0.000000000000E+00
  0.000000000000E+00  0.000000000000E+00  0.000000000000E+00  0.000000000000E+00
  0.000000000000E+00  0.000000000000E+00  0.000000000000E+00  0.000000000000E+00
  0.000000000000E+00  0.000000000000E+00  0.000000000000E+00  0.000000000000E+00
  0.000000000000E+00  0.000000000000E+00  0.000000000000E+00  0.000000000000E+00
  0.000000000000E+00
</data>
</radfunc>
</valence-charge>
<pseudocore-charge matching-radius="0.387169322622"
 number-of-continuous-derivatives="4">
<annotation model-charge-form="Teter function with specified parameters" />
<radfunc>
<data npts="290">
  1.451877889594E+02  1.451609233871E+02  1.450806313414E+02  1.449467372658E+02
  1.447607045277E+02  1.445163139379E+02  1.442052076736E+02  1.438494679812E+02
  1.434084062818E+02  1.429324835560E+02  1.423972116503E+02  1.418168182790E+02
  1.411173386172E+02  1.403890906659E+02  1.396639194867E+02  1.388315067922E+02
  1.378767627828E+02  1.369755194660E+02  1.359667041105E+02  1.348384141157E+02
  1.335776809721E+02  1.324643240101E+02  1.312495222289E+02  1.299251301851E+02
  1.284825784878E+02  1.269129037433E+02  1.252067936332E+02  1.238319100860E+02
  1.223707591120E+02  1.208191742072E+02  1.191729807720E+02  1.174280323457E+02
  1.155802531632E+02  1.136256876440E+02  1.115605574197E+02  1.093813264715E+02
  1.070847748919E+02  1.046680816955E+02  1.029890337680E+02  1.012549934062E+02
  9.946554344582E+01  9.762041323408E+01  9.571949459896E+01  9.376285852737E+01
  9.175077248204E+01  8.968371826489E+01  8.756241031089E+01  8.538781427064E+01
  8.316116571078E+01  8.088398873004E+01  7.855811425471E+01  7.618569774130E+01
  7.376923597605E+01  7.131158262161E+01  6.881596212103E+01  6.628598152904E+01
  6.372563980210E+01  6.113933404187E+01  5.853186215478E+01  5.590842136357E+01
  5.327460198830E+01  5.063637590610E+01  4.800007910345E+01  4.537238775554E+01
  4.276028730641E+01  4.017103408518E+01  3.761210907952E+01  3.634640569385E+01
  3.509116360235E+01  3.384735556837E+01  3.261595673211E+01  3.139794221184E+01
  3.019428458440E+01  2.900595124956E+01  2.783390168354E+01  2.667908458872E+01
  2.554243494710E+01  2.442487098693E+01  2.332729107274E+01  2.225057053065E+01
  2.119555842198E+01  2.016307427970E+01  1.915390482352E+01  1.816880067081E+01
  1.720847306196E+01  1.627359061988E+01  1.536477616476E+01  1.448260360640E+01
  1.362759493707E+01  1.280021734936E+01  1.200088050386E+01  1.122993397213E+01
  1.048766488102E+01  9.774295784474E+00  9.089982788826E+00  8.434813957348E+00
  7.808808019179E+00  7.211913406756E+00  6.644007644615E+00  6.104897110781E+00
  5.594317189938E+00  5.111932835189E+00  4.657339552406E+00  4.230064818033E+00
  3.829569937620E+00  3.455252348457E+00  3.106448365441E+00  2.782436364652E+00
  2.482440394339E+00  2.205634197834E+00  1.951145627684E+00  1.718061424885E+00
  1.505432331649E+00  1.312278500789E+00  1.137595159504E+00  9.803584803882E-01
  8.395316077439E-01  7.140707831155E-01  6.029315102501E-01  5.050746967176E-01
  4.194727072105E-01  3.451152622217E-01  2.810151154634E-01  2.262134441205E-01
  1.797848879058E-01  1.408421759394E-01  1.085402847488E-01  8.208007617978E-02
  6.071137068563E-02  4.373541927696E-02  3.050674626575E-02  2.043434470149E-02
  1.298221691391E-02  7.669263649300E-03  4.068536690095E-03  1.805881325283E-03
  5.580063143237E-04  5.002976581234E-05  5.255933034338E-05  3.783739823436E-04
  8.787821455338E-04  1.439736730502E-03  1.977791563076E-03  2.435985496189E-03
  2.779740079286E-03  2.992853937918E-03  3.073671996945E-03  3.031500450098E-03
  2.883329107778E-03  2.650911700468E-03  2.358242214834E-03  2.029451805018E-03
  1.687136725606E-03  1.351113592981E-03  1.037584640518E-03  7.586830334539E-04
  5.223572692470E-04  3.325446745471E-04  1.895774070058E-04  9.076046149606E-05
  3.106012285555E-05  3.843116874020E-06  1.611253868772E-06  1.668335067829E-05
  4.178523218494E-05  7.051910558869E-05  9.769492930886E-05  1.195178670609E-04
  1.336368172981E-04  1.390686650233E-04  1.360207268898E-04  1.256393906043E-04
  1.097158925345E-04  9.038043469423E-05  6.981352365298E-05  4.999883358733E-05
  3.253555080449E-05  1.852068857346E-05  8.503999394284E-06  2.510611031254E-06
  1.200792456339E-07  5.857730296288E-07  2.975797155214E-06  6.316197809695E-06
  9.718928998038E-06  1.248067648699E-05  1.414362808873E-05  1.451497793479E-05
  1.364761975565E-05  1.178940137370E-05  9.311873421315E-06  6.631257289130E-06
  4.134219570297E-06  2.119087660008E-06  7.597494355523E-07  9.523130632302E-08
  0.000000000000E+00  0.000000000000E+00  0.000000000000E+00  0.000000000000E+00
  0.000000000000E+00  0.000000000000E+00  0.000000000000E+00  0.000000000000E+00
  0.000000000000E+00  0.000000000000E+00  0.000000000000E+00  0.000000000000E+00
  0.000000000000E+00  0.000000000000E+00  0.000000000000E+00  0.000000000000E+00
  0.000000000000E+00  0.000000000000E+00  0.000000000000E+00  0.000000000000E+00
  0.000000000000E+00  0.000000000000E+00  0.000000000000E+00  0.000000000000E+00
  0.000000000000E+00  0.000000000000E+00  0.000000000000E+00  0.000000000000E+00
  0.000000000000E+00  0.000000000000E+00  0.000000000000E+00  0.000000000000E+00
  0.000000000000E+00  0.000000000000E+00  0.000000000000E+00  0.000000000000E+00
  0.000000000000E+00  0.000000000000E+00  0.000000000000E+00  0.000000000000E+00
  0.000000000000E+00  0.000000000000E+00  0.000000000000E+00  0.000000000000E+00
  0.000000000000E+00  0.000000000000E+00  0.000000000000E+00  0.000000000000E+00
  0.000000000000E+00  0.000000000000E+00  0.000000000000E+00  0.000000000000E+00
  0.000000000000E+00  0.000000000000E+00  0.000000000000E+00  0.000000000000E+00
  0.000000000000E+00  0.000000000000E+00  0.000000000000E+00  0.000000000000E+00
  0.000000000000E+00  0.000000000000E+00  0.000000000000E+00  0.000000000000E+00
  0.000000000000E+00  0.000000000000E+00  0.000000000000E+00  0.000000000000E+00
  0.000000000000E+00  0.000000000000E+00  0.000000000000E+00  0.000000000000E+00
  0.000000000000E+00  0.000000000000E+00  0.000000000000E+00  0.000000000000E+00
  0.000000000000E+00  0.000000000000E+00  0.000000000000E+00  0.000000000000E+00
  0.000000000000E+00  0.000000000000E+00  0.000000000000E+00  0.000000000000E+00
  0.000000000000E+00  0.000000000000E+00  0.000000000000E+00  0.000000000000E+00
  0.000000000000E+00  0.000000000000E+00  0.000000000000E+00  0.000000000000E+00
  0.000000000000E+00  0.000000000000E+00
</data>
</radfunc>
</pseudocore-charge>
<semilocal-potentials set="scalar_relativistic">
<slps n="3" l="s" rc="1.26116432304" eref="-4.07099795717">
<radfunc>
<data npts="290">
 -2.559129792356E+01 -2.559164111942E+01 -2.559266670653E+01 -2.559437671244E+01
 -2.559675208291E+01 -2.559987168255E+01 -2.560384137612E+01 -2.560837848130E+01
 -2.561400062001E+01 -2.562006313855E+01 -2.562687664321E+01 -2.563425837098E+01
 -2.564314604143E+01 -2.565238895893E+01 -2.566158214059E+01 -2.567212136234E+01
 -2.568419117047E+01 -2.569556618688E+01 -2.570827699855E+01 -2.572246480221E+01
 -2.573828127951E+01 -2.575221537358E+01 -2.576738187234E+01 -2.578387059048E+01
 -2.580177349663E+01 -2.582118356769E+01 -2.584219326881E+01 -2.585905458927E+01
 -2.587690265817E+01 -2.589577140994E+01 -2.591569159793E+01 -2.593668976705E+01
 -2.595878704954E+01 -2.598199776026E+01 -2.600632776600E+01 -2.603177260096E+01
 -2.605831529867E+01 -2.608592390914E+01 -2.610489807570E+01 -2.612430450342E+01
 -2.614411878704E+01 -2.616431140238E+01 -2.618484716043E+01 -2.620568461976E+01
 -2.622677545563E+01 -2.624806378464E+01 -2.626948544403E+01 -2.629096722496E+01
 -2.631242605987E+01 -2.633376816445E+01 -2.635488813552E+01 -2.637566800684E+01
 -2.639597626610E+01 -2.641566683720E+01 -2.643457803339E+01 -2.645253148809E+01
 -2.646933107206E+01 -2.648476180685E+01 -2.649858878692E+01 -2.651055612405E+01
 -2.652038593021E+01 -2.652777735661E+01 -2.653240570895E+01 -2.653392166038E+01
 -2.653195058549E+01 -2.652609204017E+01 -2.651591941306E+01 -2.650907480625E+01
 -2.650097977557E+01 -2.649157360527E+01 -2.648079395795E+01 -2.646857689130E+01
 -2.645485687940E+01 -2.643956683902E+01 -2.642263816095E+01 -2.640400074664E+01
 -2.638358305053E+01 -2.636131212818E+01 -2.633711369044E+01 -2.631091216416E+01
 -2.628263075934E+01 -2.625219154343E+01 -2.621951552276E+01 -2.618452273154E+01
 -2.614713232884E+01 -2.610726270369E+01 -2.606483158881E+01 -2.601975618329E+01
 -2.597195328441E+01 -2.592133942921E+01 -2.586783104588E+01 -2.581134461540E+01
 -2.575179684365E+01 -2.568910484429E+01 -2.562318633239E+01 -2.555395982906E+01
 -2.548134487698E+01 -2.540526226669E+01 -2.532563427344E+01 -2.524238490413E+01
 -2.515544015375E+01 -2.506472827070E+01 -2.497018002988E+01 -2.487172901251E+01
 -2.476931189135E+01 -2.466286871979E+01 -2.455234322316E+01 -2.443768309042E+01
 -2.431884026438E+01 -2.419577122844E+01 -2.406843728804E+01 -2.393680484488E+01
 -2.380084566224E+01 -2.366053712019E+01 -2.351586245938E+01 -2.336681101291E+01
 -2.321337842620E+01 -2.305556686521E+01 -2.289338521427E+01 -2.272684926526E+01
 -2.255598190087E+01 -2.238081327529E+01 -2.220138099682E+01 -2.201773031741E+01
 -2.182991433565E+01 -2.163799422030E+01 -2.144203946291E+01 -2.124212816917E+01
 -2.103834740025E+01 -2.083079357668E+01 -2.061957295937E+01 -2.040480222430E+01
 -2.018660914954E+01 -1.996513343581E+01 -1.974052768463E+01 -1.951295856047E+01
 -1.928260816681E+01 -1.904967566807E+01 -1.881437919263E+01 -1.857695805343E+01
 -1.833767532417E+01 -1.809682080874E+01 -1.785471443974E+01 -1.761171013789E+01
 -1.736820015751E+01 -1.712461993370E+01 -1.688145343365E+01 -1.663923899852E+01
 -1.639857564192E+01 -1.616012974840E+01 -1.592464208959E+01 -1.569293504802E+01
 -1.546591991048E+01 -1.524460406522E+01 -1.503009791166E+01 -1.482362127689E+01