<?xml version="1.0" encoding="UTF-8" ?>
<psml version="1.1" energy_unit="hartree" length_unit="bohr"
 uuid="5bc70b70-1d5f-11e8-710b-ca30d96e7173"
 xmlns="http://esl.cecam.org/PSML/ns/1.1">
<provenance creator="ONCVPSP-3.3.0+psml-3.3.0-73 (scalar-relativistic)"
 date="2018-03-01">
<annotation action="semilocal-pseudopotential-generation"
 action-cont="projectors-generation" />
<input-file name="oncvpsp-input">
<![CDATA[# atsym z nc nv iexc psfile
O 8 1 2 -116133 upf
# n l f
1 0 2.0
2 0 2.0
2 1 4.0
# lmax
2
# l rc ep ncon nbas qcut
0 1.35 0.0 4 8 8.4
1 1.45 0.0 4 8 9.3
2 1.25 0.1 4 8 6.0
# lloc lpopt rc5 dvloc0
4 5 1.2 0.0
# l nproj debl
0 2 1.0
1 2 1.0
2 1 1.0
# icmod fcfact
3 4 1.5
# epsh1 epsh2 depsh
-12.0 12.0 0.02
# rlmax drl
6.0 0.01
 0
]]>
</input-file>
</provenance>
<pseudo-atom-spec atomic-label="O" atomic-number="8" z-pseudo="6"
 flavor="Hamann&apos;s oncvpsp" relativity="scalar" spin-dft="no"
 core-corrections="yes">
<annotation pseudo-energy="-15.7113562171" />
<exchange-correlation>
<annotation oncvpsp-xc-code="-116133" oncvpsp-xc-type="libxc-interface" />
<libxc-info number-of-functionals="2">
<functional name="Perdew, Burke &amp; Ernzerhof SOL (GGA)" type="exchange"
 id="116" />
<functional name="Perdew, Burke &amp; Ernzerhof SOL (GGA)" type="correlation"
 id="133" />
</libxc-info>
</exchange-correlation>
<valence-configuration total-valence-charge="6">
<shell n="2" l="s" occupation="2" />
<shell n="2" l="p" occupation="4" />
</valence-configuration>
</pseudo-atom-spec>
<grid npts="457">
<annotation type="sampled from oncvpsp log grid"
 recipe="r(i:1..N) = r1*exp(a*(i-1)) + r=0; resampled"
 recipe-cont="r1: scale; a: step" scale="0.625000000000E-04"
 step="0.119285708653E-01" delta="0.500000000000E-02" rmax="44.1243818316" />
<grid-data>
  0.000000000000E+00  5.038585340028E-03  1.006417880273E-02  1.509787304249E-02
  2.010240735005E-02  2.521609353432E-02  3.051869836261E-02  3.563794632140E-02
  4.112243467717E-02  4.633230903787E-02  5.158323284976E-02  5.674827400167E-02
  6.243049193037E-02  6.786726449336E-02  7.290266753181E-02  7.831167165686E-02
  8.412199615352E-02  8.929191396799E-02  9.477956140646E-02  1.006044653004E-01
  1.067873525493E-01  1.120061500728E-01  1.174799950991E-01  1.232213520374E-01
  1.292432944444E-01  1.355595347938E-01  1.421844557004E-01  1.473647654853E-01
  1.527338132677E-01  1.582984754767E-01  1.640658790751E-01  1.700434106874E-01
  1.762387260605E-01  1.826597598689E-01  1.893147358765E-01  1.962121774698E-01
  2.033609185741E-01  2.107701149672E-01  2.158589486230E-01  2.210706470785E-01
  2.264081767816E-01  2.318745758018E-01  2.374729555600E-01  2.432065025990E-01
  2.490784803978E-01  2.550922312285E-01  2.612511780593E-01  2.675588265023E-01
  2.740187668094E-01  2.806346759152E-01  2.874103195305E-01  2.943495542853E-01
  3.014563299240E-01  3.087346915536E-01  3.161887819465E-01  3.238228438978E-01
  3.316412226409E-01  3.396483683203E-01  3.478488385251E-01  3.562473008824E-01
  3.648485357149E-01  3.736574387612E-01  3.826790239627E-01  3.919184263172E-01
  4.013809048022E-01  4.110718453678E-01  4.209967640023E-01  4.260487251704E-01
  4.311613098724E-01  4.363352455909E-01  4.415712685380E-01  4.468701237604E-01
  4.522325652455E-01  4.576593560285E-01  4.631512683008E-01  4.687090835204E-01
  4.743335925227E-01  4.800255956330E-01  4.857859027806E-01  4.916153336139E-01
  4.975147176173E-01  5.034848942287E-01  5.095267129594E-01  5.156410335150E-01
  5.218287259171E-01  5.280906706281E-01  5.344277586757E-01  5.408408917798E-01
  5.473309824811E-01  5.538989542709E-01  5.605457417222E-01  5.672722906228E-01
  5.740795581103E-01  5.809685128076E-01  5.879401349613E-01  5.949954165809E-01
  6.021353615798E-01  6.093609859188E-01  6.166733177498E-01  6.240733975628E-01
  6.315622783336E-01  6.391410256736E-01  6.468107179816E-01  6.545724465974E-01
  6.624273159566E-01  6.703764437481E-01  6.784209610731E-01  6.865620126059E-01
  6.948007567572E-01  7.031383658383E-01  7.115760262283E-01  7.201149385431E-01
  7.287563178056E-01  7.375013936193E-01  7.463514103427E-01  7.553076272668E-01
  7.643713187940E-01  7.735437746195E-01  7.828262999150E-01  7.922202155140E-01
  8.017268581001E-01  8.113475803973E-01  8.210837513621E-01  8.309367563784E-01
  8.409079974550E-01  8.509988934244E-01  8.612108801455E-01  8.715454107073E-01
  8.820039556358E-01  8.925880031034E-01  9.032990591406E-01  9.141386478503E-01
  9.251083116245E-01  9.362096113640E-01  9.474441267004E-01  9.588134562208E-01
  9.703192176954E-01  9.819630483078E-01  9.937466048875E-01  1.005671564146E+00
  1.017739622916E+00  1.029952498391E+00  1.042311928372E+00  1.054819671512E+00
  1.067477507570E+00  1.080287237661E+00  1.093250684513E+00  1.106369692727E+00
  1.119646129040E+00  1.133081882588E+00  1.146678865179E+00  1.160439011562E+00
  1.174364279700E+00  1.188456651057E+00  1.202718130869E+00  1.217150748440E+00
  1.231756557421E+00  1.246537636110E+00  1.261496087743E+00  1.276634040796E+00
  1.291953649286E+00  1.307457093077E+00  1.323146578194E+00  1.339024337133E+00
  1.355092629178E+00  1.371353740728E+00  1.387809985617E+00  1.404463705444E+00
  1.421317269910E+00  1.438373077149E+00  1.455633554074E+00  1.473101156723E+00
  1.490778370604E+00  1.508667711051E+00  1.526771723584E+00  1.545092984267E+00
  1.563634100078E+00  1.582397709279E+00  1.601386481790E+00  1.620603119572E+00
  1.640050357007E+00  1.659730961291E+00  1.679647732826E+00  1.699803505620E+00
  1.720201147688E+00  1.740843561460E+00  1.761733684197E+00  1.782874488408E+00
  1.804268982269E+00  1.825920210056E+00  1.847831252577E+00  1.870005227608E+00
  1.892445290339E+00  1.915154633823E+00  1.938136489429E+00  1.961394127302E+00
  1.984930856830E+00  2.008750027112E+00  2.032855027437E+00  2.057249287766E+00
  2.081936279219E+00  2.106919514570E+00  2.132202548745E+00  2.157788979330E+00
  2.183682447082E+00  2.209886636447E+00  2.236405276084E+00  2.263242139397E+00
  2.290401045070E+00  2.317885857611E+00  2.345700487902E+00  2.373848893757E+00
  2.402335080482E+00  2.431163101448E+00  2.460337058665E+00  2.489861103369E+00
  2.519739436609E+00  2.549976309849E+00  2.580576025567E+00  2.611542937874E+00
  2.642881453128E+00  2.674596030566E+00  2.706691182933E+00  2.739171477128E+00
  2.772041534853E+00  2.805306033271E+00  2.838969705671E+00  2.873037342139E+00
  2.907513790244E+00  2.942403955727E+00  2.977712803196E+00  3.013445356834E+00
  3.049606701116E+00  3.086201981530E+00  3.123236405308E+00  3.160715242172E+00
  3.198643825078E+00  3.237027550979E+00  3.275871881591E+00  3.315182344170E+00
  3.354964532300E+00  3.395224106687E+00  3.435966795968E+00  3.477198397519E+00
  3.518924778289E+00  3.561151875629E+00  3.603885698137E+00  3.647132326514E+00
  3.690897914432E+00  3.735188689406E+00  3.780010953678E+00  3.825371085123E+00
  3.871275538144E+00  3.917730844602E+00  3.964743614737E+00  4.012320538114E+00
  4.060468384571E+00  4.109194005186E+00  4.158504333248E+00  4.208406385247E+00
  4.258907261870E+00  4.310014149013E+00  4.361734318801E+00  4.414075130626E+00
  4.467044032194E+00  4.520648560580E+00  4.574896343307E+00  4.629795099427E+00
  4.685352640620E+00  4.741576872307E+00  4.798475794775E+00  4.856057504312E+00
  4.914330194364E+00  4.973302156697E+00  5.032981782577E+00  5.093377563968E+00
  5.154498094735E+00  5.216352071872E+00  5.278948296735E+00  5.342295676296E+00
  5.406403224411E+00  5.471280063104E+00  5.536935423861E+00  5.603378648948E+00
  5.670619192735E+00  5.738666623048E+00  5.807530622524E+00  5.877220989995E+00
  5.947747641875E+00  6.019120613577E+00  6.091350060940E+00  6.164446261671E+00
  6.238419616811E+00  6.313280652213E+00  6.389040020040E+00  6.465708500280E+00
  6.543297002283E+00  6.621816566311E+00  6.701278365107E+00  6.781693705488E+00
  6.863074029954E+00  6.945430918313E+00  7.028776089333E+00  7.113121402405E+00
  7.198478859234E+00  7.284860605545E+00  7.372278932811E+00  7.460746280005E+00
  7.550275235365E+00  7.640878538189E+00  7.732569080648E+00  7.825359909615E+00
  7.919264228531E+00  8.014295399273E+00  8.110466944064E+00  8.207792547393E+00
  8.306286057962E+00  8.405961490657E+00  8.506833028545E+00  8.608915024888E+00
  8.712222005187E+00  8.816768669249E+00  8.922569893280E+00  9.029640731999E+00
  9.137996420783E+00  9.247652377832E+00  9.358624206366E+00  9.470927696843E+00
  9.584578829205E+00  9.699593775155E+00  9.815988900457E+00  9.933780767263E+00
  1.005298613647E+01  1.017362197011E+01  1.029570543375E+01  1.041925389895E+01
  1.054428494574E+01  1.067081636509E+01  1.079886616147E+01  1.092845255541E+01
  1.105959398607E+01  1.119230911391E+01  1.132661682327E+01  1.146253622515E+01
  1.160008665985E+01  1.173928769977E+01  1.188015915217E+01  1.202272106200E+01
  1.216699371474E+01  1.231299763932E+01  1.246075361099E+01  1.261028265432E+01
  1.276160604617E+01  1.291474531873E+01  1.306972226255E+01  1.322655892970E+01
  1.338527763686E+01  1.354590096850E+01  1.370845178012E+01  1.387295320148E+01
  1.403942863990E+01  1.420790178358E+01  1.437839660498E+01  1.455093736424E+01
  1.472554861261E+01  1.490225519597E+01  1.508108225832E+01  1.526205524542E+01
  1.544519990836E+01  1.563054230726E+01  1.581810881495E+01  1.600792612073E+01
  1.620002123418E+01  1.639442148899E+01  1.659115454686E+01  1.679024840142E+01
  1.699173138224E+01  1.719563215882E+01  1.740197974473E+01  1.761080350166E+01
  1.782213314368E+01  1.803599874141E+01  1.825243072631E+01  1.847145989502E+01
  1.869311741376E+01  1.891743482273E+01  1.914444404060E+01  1.937417736909E+01
  1.960666749752E+01  1.984194750749E+01  2.008005087758E+01  2.032101148811E+01
  2.056486362596E+01  2.081164198948E+01  2.106138169335E+01  2.131411827367E+01
  2.156988769295E+01  2.182872634527E+01  2.209067106141E+01  2.235575911415E+01
  2.262402822352E+01  2.289551656220E+01  2.317026276095E+01  2.344830591408E+01
  2.372968558505E+01  2.401444181207E+01  2.430261511381E+01  2.459424649518E+01
  2.488937745312E+01  2.518804998256E+01  2.549030658235E+01  2.579619026134E+01
  2.610574454447E+01  2.641901347901E+01  2.673604164076E+01  2.705687414044E+01
  2.738155663013E+01  2.771013530969E+01  2.804265693341E+01  2.837916881661E+01
  2.871971884241E+01  2.906435546852E+01  2.941312773414E+01  2.976608526695E+01
  3.012327829015E+01  3.048475762963E+01  3.085057472119E+01  3.122078161784E+01
  3.159543099726E+01  3.197457616923E+01  3.235827108326E+01  3.274657033625E+01
  3.313952918029E+01  3.353720353045E+01  3.393964997282E+01  3.434692577249E+01
  3.475908888176E+01  3.517619794834E+01  3.559831232372E+01  3.602549207161E+01
  3.645779797647E+01  3.689529155219E+01  3.733803505081E+01  3.778609147142E+01
  3.823952456908E+01  3.869839886391E+01  3.916277965027E+01  3.963273300608E+01
  4.010832580215E+01  4.058962571178E+01  4.107670122032E+01  4.156962163496E+01
  4.206845709458E+01  4.257327857972E+01  4.308415792267E+01  4.360116781774E+01
  4.412438183156E+01
</grid-data>
</grid>
<valence-charge total-charge="6" is-unscreening-charge="yes"
 rescaled-to-z-pseudo="no">
<radfunc>
<data npts="457">
  3.668213626804E+00  3.670378969779E+00  3.676849928817E+00  3.687639173055E+00
  3.702626347039E+00  3.722308877096E+00  3.747354493825E+00  3.775979534902E+00
  3.811449586131E+00  3.849697507620E+00  3.892683061736E+00  3.939253566326E+00
  3.995325728126E+00  4.053641005795E+00  4.111645384144E+00  4.178147493181E+00
  4.254315952663E+00  4.326110173179E+00  4.406349953471E+00  4.495935466254E+00
  4.595837438775E+00  4.683883167672E+00  4.779757522220E+00  4.884046420402E+00
  4.997355928140E+00  5.120307162392E+00  5.253529494583E+00  5.360565237579E+00
  5.473993945184E+00  5.594070259930E+00  5.721038147922E+00  5.855126499882E+00
  5.996544054287E+00  6.145473579939E+00  6.302065256703E+00  6.466429196683E+00
  6.638627054714E+00  6.818662687181E+00  6.943012165115E+00  7.070780013288E+00
  7.201910809647E+00  7.336330188801E+00  7.473943086391E+00  7.614631911549E+00
  7.758254655543E+00  7.904642947071E+00  8.053600067224E+00  8.204898940126E+00
  8.358280118400E+00  8.513449786235E+00  8.670077806582E+00  8.827795843206E+00
  8.986195592653E+00  9.144827165797E+00  9.303197663418E+00  9.460769995000E+00
  9.616961994827E+00  9.771145893982E+00  9.922648211254E+00  1.007075012970E+01
  1.021468842875E+01  1.035365704379E+01  1.048680932617E+01  1.061326107568E+01
  1.073209441508E+01  1.084236257149E+01  1.094309562177E+01  1.098957869231E+01
  1.103330724866E+01  1.107415671926E+01  1.111200254088E+01  1.114672046036E+01
  1.117818685271E+01  1.120627905528E+01  1.123087571761E+01  1.125185716642E+01
  1.126910578512E+01  1.128250640703E+01  1.129194672136E+01  1.129731769092E+01
  1.129851398031E+01  1.129543439314E+01  1.128798231688E+01  1.127606617342E+01
  1.125959987367E+01  1.123850327396E+01  1.121270263223E+01  1.118213106145E+01
  1.114672897795E+01  1.110644454185E+01  1.106123408685E+01  1.101106253652E+01
  1.095590380401E+01  1.089574117204E+01  1.083056765014E+01  1.076038630573E+01
  1.068521056595E+01  1.060506448691E+01  1.051998298722E+01  1.043001204263E+01
  1.033520883876E+01  1.023564187902E+01  1.013139104509E+01  1.002254760726E+01
  9.909214182594E+00  9.791504638858E+00  9.669543942529E+00  9.543467949732E+00
  9.413423139154E+00  9.279566286535E+00  9.142064080767E+00  9.001092682108E+00
  8.856837223558E+00  8.709491256947E+00  8.559256145827E+00  8.406340407808E+00
  8.250959009506E+00  8.093332617798E+00  7.933686811587E+00  7.772251258756E+00
  7.609258863431E+00  7.444944889076E+00  7.279546063283E+00  7.113299670418E+00
  6.946442638488E+00  6.779210626766E+00  6.611837120763E+00  6.444552541151E+00
  6.277583373128E+00  6.111151322562E+00  5.945472505008E+00  5.780756673320E+00
  5.617206489245E+00  5.455016843849E+00  5.294374231142E+00  5.135456178701E+00
  4.978430738439E+00  4.823456040107E+00  4.670679909410E+00  4.520239552046E+00
  4.372261304337E+00  4.226860450547E+00  4.084141106482E+00  3.944196168447E+00
  3.807107326288E+00  3.672945138866E+00  3.541769170072E+00  3.413628183301E+00
  3.288560392150E+00  3.166593765072E+00  3.047746381621E+00  2.932026837956E+00
  2.819434699196E+00  2.709960996169E+00  2.603588763978E+00  2.500293619578E+00
  2.400044375244E+00  2.302803684346E+00  2.208528715273E+00  2.117171848535E+00
  2.028681391154E+00  1.943002301451E+00  1.860076916143E+00  1.779845670557E+00
  1.702247801559E+00  1.627222185815E+00  1.554708802970E+00  1.484650456317E+00
  1.416993327648E+00  1.351686953642E+00  1.288684420084E+00  1.227941949674E+00
  1.169417020963E+00  1.113065839518E+00  1.058843155749E+00  1.006702716226E+00
  9.565973029926E-01  9.084788751462E-01  8.622987057267E-01  8.180075137165E-01
  7.755555909757E-01  7.348929239693E-01  6.959693101683E-01  6.587344690329E-01
  6.231381475117E-01  5.891302200156E-01  5.566607828454E-01  5.256802430778E-01
  4.961394019317E-01  4.679895326577E-01  4.411824530123E-01  4.156705923933E-01
  3.914070537302E-01  3.683456702358E-01  3.464410571413E-01  3.256486585443E-01
  3.059247895134E-01  2.872266736011E-01  2.695124759229E-01  2.527413319697E-01
  2.368733723244E-01  2.218697434589E-01  2.076926247897E-01  1.943052421740E-01
  1.816718780279E-01  1.697578782485E-01  1.585296561229E-01  1.479546934019E-01
  1.380015387161E-01  1.286398035098E-01  1.198401556599E-01  1.115743109493E-01
  1.038150225522E-01  9.653606868904E-02  8.971223860166E-02  8.331931699197E-02
  7.733406706444E-02  7.173421230520E-02  6.649841712572E-02  6.160626649297E-02
  5.703824466322E-02  5.277571313084E-02  4.880088789892E-02  4.509681617352E-02
  4.164735257896E-02  3.843713498707E-02  3.545156004923E-02  3.267675851601E-02
  3.009957042507E-02  2.770752023450E-02  2.548879197456E-02  2.343220448741E-02
  2.152718682020E-02  1.976375383354E-02  1.813248208301E-02  1.662448602793E-02
  1.523139461730E-02  1.394532829900E-02  1.275887649428E-02  1.166507557531E-02
  1.065738737986E-02  9.729678292657E-03  8.876198919415E-03  8.091564375099E-03
  7.370735204537E-03  6.708998949431E-03  6.101952372305E-03  5.545484344435E-03
  5.035759401452E-03  4.569201967224E-03  4.142481243657E-03  3.752496761358E-03
  3.396364583583E-03  3.071404153635E-03  2.775125773827E-03  2.505218702266E-03
  2.259539852196E-03  2.036103077185E-03  1.833069024357E-03  1.648735536894E-03
  1.481528586312E-03  1.329993714464E-03  1.192787964868E-03  1.068672282764E-03
  9.565043632509E-04  8.552319269734E-04  7.638864030445E-04  6.815769992253E-04
  6.074851398203E-04  5.408592522514E-04  4.810098838551E-04  4.273051310732E-04
  3.791663638747E-04  3.360642289386E-04  2.975149158394E-04  2.630766711879E-04
  2.323465463955E-04  2.049573654328E-04  1.805748996392E-04  1.588952373112E-04
  1.396423364369E-04  1.225657495675E-04  1.074385104018E-04  9.405517222537E-05
  8.222998887658E-05  7.179522941858E-05  6.259961817133E-05  5.450689221011E-05
  4.739446886208E-05  4.115221613458E-05  3.568131938900E-05  3.089323793389E-05
  2.670874555181E-05  2.305704929762E-05  1.987498121388E-05  1.710625790110E-05
  1.470080316015E-05  1.261412919053E-05  1.080677208261E-05  9.243777586345E-06
  7.894233372102E-06  6.730844223004E-06  5.729546812898E-06  4.869160929356E-06
  4.131074198166E-06  3.498957554281E-06  2.958508884623E-06  2.497222440563E-06
  2.104181782473E-06  1.769874175708E-06  1.486024506647E-06  1.245446929384E-06
  1.041912588206E-06  8.700318883707E-07  7.251499080837E-07  6.032536579678E-07
  5.008900010542E-07  4.150931464565E-07  3.433207236610E-07  2.833975319658E-07
  2.334661412373E-07  1.919435960482E-07  1.574835456537E-07  1.289431873823E-07
  1.053544711130E-07  8.589906783408E-08  6.988665607095E-08  5.673612649619E-08
  4.595934753139E-08  3.714717347659E-08  2.995741189616E-08  2.410449889131E-08
  1.935065973191E-08  1.549835832692E-08  1.238386240296E-08  9.871772239106E-09
  7.850379574003E-09  6.227740044857E-09  4.928357416087E-09  3.890391075518E-09
  3.063309975077E-09  2.405926517765E-09  1.884752979511E-09  1.472631029732E-09
  1.147591894402E-09  8.919107973835E-10  6.913246174767E-10  5.343862997061E-10
  4.119335407349E-10  3.166527036713E-10  2.427218730624E-10  1.855194961936E-10
  1.413872252195E-10  1.074374237446E-10  8.139737352769E-11  6.148354947069E-11
  4.630045702689E-11  3.475947470660E-11  2.601394093901E-11  1.940739142241E-11
  1.443240959522E-11  1.069798883394E-11  7.903887001180E-12  5.820150963171E-12
  4.271308601441E-12  0.000000000000E+00  0.000000000000E+00  0.000000000000E+00
  0.000000000000E+00  0.000000000000E+00  0.000000000000E+00  0.000000000000E+00
  0.000000000000E+00  0.000000000000E+00  0.000000000000E+00  0.000000000000E+00
  0.000000000000E+00  0.000000000000E+00  0.000000000000E+00  0.000000000000E+00
  0.000000000000E+00  0.000000000000E+00  0.000000000000E+00  0.000000000000E+00
  0.000000000000E+00  0.000000000000E+00  0.000000000000E+00  0.000000000000E+00
  0.000000000000E+00  0.000000000000E+00  0.000000000000E+00  0.000000000000E+00
  0.000000000000E+00  0.000000000000E+00  0.000000000000E+00  0.000000000000E+00
  0.000000000000E+00  0.000000000000E+00  0.000000000000E+00  0.000000000000E+00
  0.000000000000E+00  0.000000000000E+00  0.000000000000E+00  0.000000000000E+00
  0.000000000000E+00  0.000000000000E+00  0.000000000000E+00  0.000000000000E+00
  0.000000000000E+00  0.000000000000E+00  0.000000000000E+00  0.000000000000E+00
  0.000000000000E+00  0.000000000000E+00  0.000000000000E+00  0.000000000000E+00
  0.000000000000E+00  0.000000000000E+00  0.000000000000E+00  0.000000000000E+00
  0.000000000000E+00  0.000000000000E+00  0.000000000000E+00  0.000000000000E+00
  0.000000000000E+00  0.000000000000E+00  0.000000000000E+00  0.000000000000E+00
  0.000000000000E+00  0.000000000000E+00  0.000000000000E+00  0.000000000000E+00
  0.000000000000E+00  0.000000000000E+00  0.000000000000E+00  0.000000000000E+00
  0.000000000000E+00  0.000000000000E+00  0.000000000000E+00  0.000000000000E+00
  0.000000000000E+00  0.000000000000E+00  0.000000000000E+00  0.000000000000E+00
  0.000000000000E+00  0.000000000000E+00  0.000000000000E+00  0.000000000000E+00
  0.000000000000E+00  0.000000000000E+00  0.000000000000E+00  0.000000000000E+00
  0.000000000000E+00  0.000000000000E+00  0.000000000000E+00  0.000000000000E+00
  0.000000000000E+00
</data>
</radfunc>
</valence-charge>
<pseudocore-charge matching-radius="0.382679023963"
 number-of-continuous-derivatives="4">
<annotation model-charge-form="Teter function with specified parameters" />
<radfunc>
<data npts="290">
  4.325856967626E+01  4.324804030023E+01  4.321657501259E+01  4.316411530981E+01
  4.309125144165E+01  4.299557246367E+01  4.287384344667E+01  4.273474544896E+01
  4.256242680019E+01  4.237666396919E+01  4.216795435632E+01  4.194191340342E+01
  4.166985649952E+01  4.138703422833E+01  4.110583817744E+01  4.078359044753E+01
  4.041468969915E+01  4.006715501779E+01  3.967894261803E+01  3.924576573014E+01
  3.876301280691E+01  3.833781615599E+01  3.787508808380E+01  3.737206625586E+01
  3.682590051954E+01  3.623367738597E+01  3.559245201376E+01  3.507760768158E+01
  3.453232827668E+01  3.395542805248E+01  3.334577102418E+01  3.270228995643E+01
  3.202400789651E+01  3.131006238432E+01  3.055973243326E+01  2.977246832374E+01
  2.894792418213E+01  2.808599322867E+01  2.749067351536E+01  2.687893333127E+01
  2.625096743966E+01  2.560704404343E+01  2.494751035330E+01  2.427279814713E+01
  2.358342925244E+01  2.288002087402E+01  2.216329067699E+01  2.143406152409E+01
  2.069326575420E+01  1.994194887680E+01  1.918127254590E+01  1.841251666523E+01
  1.763708046718E+01  1.685648239903E+01  1.607235864414E+01  1.528646010232E+01
  1.450064765403E+01  1.371688553783E+01  1.293723268073E+01  1.216383183766E+01
  1.139889642000E+01  1.064469492487E+01  9.903532917850E+00  9.177732571928E+00
  8.469609825841E+00  7.781449295245E+00  7.115477150170E+00  6.791484347730E+00
  6.473832261099E+00  6.162769654442E+00  5.858536012223E+00  5.561360559191E+00
  5.271461281808E+00  4.989043956820E+00  4.714301193068E+00  4.447411492980E+00
  4.188538340522E+00  3.937829322661E+00  3.695415291680E+00  3.461409575860E+00
  3.235907246205E+00  3.018984446993E+00  2.810697797922E+00  2.611083875598E+00
  2.420158781935E+00  2.237917806827E+00  2.064335192115E+00  1.899364003420E+00
  1.742936115894E+00  1.594962319262E+00  1.455332546772E+00  1.323916231772E+00
  1.200562794642E+00  1.085102261700E+00  9.773460164344E-01  8.770876822041E-01
  7.841041339946E-01  6.981566354561E-01  6.189920958311E-01  5.463444398128E-01
  4.799360817530E-01  4.194794940262E-01  3.646788577634E-01  3.152317826412E-01
  2.708310809559E-01  2.311665798867E-01  1.959269546670E-01  1.648015643863E-01
  1.374822713655E-01  1.136652245144E-01  9.305258683127E-02  7.535418725467E-02
  6.028907746292E-02  4.758697494636E-02  3.698957476602E-02  2.825171386548E-02
  2.114237361468E-02  1.544550842402E-02  1.096069075147E-02  7.503565602132E-03
  4.906110646014E-03  3.016701302774E-03  1.699983498520E-03  8.365602182881E-04
  3.225013785342E-04  6.868984168091E-05  1.950007651823E-08  5.446417897030E-05
  1.820385582137E-04  3.436743059810E-04  5.100360786580E-04  6.603029045634E-04
  7.809406858032E-04  8.644910910385E-04  9.084009621224E-04  9.139145326570E-04
  8.850482946696E-04  8.276653144179E-04  7.486622783842E-04  6.552786576723E-04
  5.545332454173E-04  4.527890956099E-04  3.554437316108E-04  2.667375612017E-04
  1.896698914194E-04  1.260089283305E-04  7.637980242064E-05  4.041308015205E-05
  1.693547291105E-05  4.184562557046E-06  3.031097570759E-08  2.187847306460E-06
  8.408424977649E-06  1.663836591080E-05  2.513908334810E-05  3.256469716601E-05
  3.799711517135E-05  4.094154283337E-05  4.128801194230E-05  3.924652736245E-05
  3.526470637739E-05  2.993726753763E-05  2.391641645881E-05  1.783113785353E-05
  1.222175782219E-05  7.494059073480E-06  3.894920665040E-06  1.509136746484E-06
  2.749660340321E-07  1.427107796508E-08  4.719750065706E-07  1.359083875427E-06
  2.393714518294E-06  3.335376398409E-06  4.009058272926E-06  4.317288372177E-06
  4.240057931438E-06  3.824101673256E-06  3.164314271068E-06  2.380894088155E-06
  1.596057034266E-06  9.138465550961E-07  4.057543946503E-07  1.037058225216E-07
  6.471489962506E-10  0.000000000000E+00  0.000000000000E+00  0.000000000000E+00
  0.000000000000E+00  0.000000000000E+00  0.000000000000E+00  0.000000000000E+00
  0.000000000000E+00  0.000000000000E+00  0.000000000000E+00  0.000000000000E+00
  0.000000000000E+00  0.000000000000E+00  0.000000000000E+00  0.000000000000E+00
  0.000000000000E+00  0.000000000000E+00  0.000000000000E+00  0.000000000000E+00
  0.000000000000E+00  0.000000000000E+00  0.000000000000E+00  0.000000000000E+00
  0.000000000000E+00  0.000000000000E+00  0.000000000000E+00  0.000000000000E+00
  0.000000000000E+00  0.000000000000E+00  0.000000000000E+00  0.000000000000E+00
  0.000000000000E+00  0.000000000000E+00  0.000000000000E+00  0.000000000000E+00
  0.000000000000E+00  0.000000000000E+00  0.000000000000E+00  0.000000000000E+00
  0.000000000000E+00  0.000000000000E+00  0.000000000000E+00  0.000000000000E+00
  0.000000000000E+00  0.000000000000E+00  0.000000000000E+00  0.000000000000E+00
  0.000000000000E+00  0.000000000000E+00  0.000000000000E+00  0.000000000000E+00
  0.000000000000E+00  0.000000000000E+00  0.000000000000E+00  0.000000000000E+00
  0.000000000000E+00  0.000000000000E+00  0.000000000000E+00  0.000000000000E+00
  0.000000000000E+00  0.000000000000E+00  0.000000000000E+00  0.000000000000E+00
  0.000000000000E+00  0.000000000000E+00  0.000000000000E+00  0.000000000000E+00
  0.000000000000E+00  0.000000000000E+00  0.000000000000E+00  0.000000000000E+00
  0.000000000000E+00  0.000000000000E+00  0.000000000000E+00  0.000000000000E+00
  0.000000000000E+00  0.000000000000E+00  0.000000000000E+00  0.000000000000E+00
  0.000000000000E+00  0.000000000000E+00  0.000000000000E+00  0.000000000000E+00
  0.000000000000E+00  0.000000000000E+00  0.000000000000E+00  0.000000000000E+00
  0.000000000000E+00  0.000000000000E+00  0.000000000000E+00  0.000000000000E+00
  0.000000000000E+00  0.000000000000E+00  0.000000000000E+00  0.000000000000E+00
  0.000000000000E+00  0.000000000000E+00  0.000000000000E+00  0.000000000000E+00
  0.000000000000E+00  0.000000000000E+00  0.000000000000E+00  0.000000000000E+00
  0.000000000000E+00  0.000000000000E+00
</data>
</radfunc>
</pseudocore-charge>
<semilocal-potentials set="scalar_relativistic">
<slps n="2" l="s" rc="1.35509262918" eref="-0.874949515970">
<radfunc>
<data npts="290">
 -4.827798214107E+00 -4.828169101974E+00 -4.829278039779E+00 -4.831129199347E+00
 -4.833705177574E+00 -4.837096228960E+00 -4.841424433412E+00 -4.846389191505E+00
 -4.852567650565E+00 -4.859262679517E+00 -4.866827272164E+00 -4.875070570473E+00
 -4.885061309338E+00 -4.895527220971E+00 -4.906013183591E+00 -4.918127801858E+00
 -4.932123808706E+00 -4.945432999109E+00 -4.960441218446E+00 -4.977362758408E+00
 -4.996437264343E+00 -5.013425612695E+00 -5.032112778903E+00 -5.052662054756E+00
 -5.075250122258E+00 -5.100067464013E+00 -5.127318578338E+00 -5.149484982243E+00
 -5.173240201844E+00 -5.198685574539E+00 -5.225926292905E+00 -5.255071024488E+00
 -5.286231404828E+00 -5.319521383366E+00 -5.355056399659E+00 -5.392952364923E+00
 -5.433324421425E+00 -5.476285449514E+00 -5.506418427956E+00 -5.537781388976E+00
 -5.570403641063E+00 -5.604312622532E+00 -5.639533516103E+00 -5.676088824434E+00
 -5.713997903957E+00 -5.753276454348E+00 -5.793935960957E+00 -5.835983087543E+00
 -5.879419016842E+00 -5.924238736651E+00 -5.970430269434E+00 -6.017973844010E+00
 -6.066841008429E+00 -6.116993684319E+00 -6.168383164145E+00 -6.220949054940E+00
 -6.274618174604E+00 -6.329303410716E+00 -6.384902556941E+00 -6.441297149193E+00
 -6.498351333389E+00 -6.555910809096E+00 -6.613801909521E+00 -6.671830897603E+00
 -6.729783579893E+00 -6.787425361821E+00 -6.844501885384E+00 -6.872743603517E+00
 -6.900740395858E+00 -6.928455658555E+00 -6.955851967410E+00 -6.982891199128E+00
 -7.009534666516E+00 -7.035743266045E+00 -7.061477635465E+00 -7.086698318350E+00
 -7.111365931599E+00 -7.135441331179E+00 -7.158885770685E+00 -7.181661046882E+00
 -7.203729626155E+00 -7.225054745965E+00 -7.245600486005E+00 -7.265331804767E+00
 -7.284214538695E+00 -7.302215363025E+00 -7.319301715612E+00 -7.335441687399E+00
 -7.350603885581E+00 -7.364757277673E+00 -7.377871026390E+00 -7.389914326476E+00
 -7.400856254802E+00 -7.410665644907E+00 -7.419310995840E+00 -7.426760422978E+00
 -7.432981656503E+00 -7.437942090120E+00 -7.441608879612E+00 -7.443949088231E+00
 -7.444929873213E+00 -7.444518705655E+00 -7.442683614388E+00 -7.439393443429E+00
 -7.434618112080E+00 -7.428328866759E+00 -7.420498514106E+00 -7.411101625790E+00
 -7.400114706705E+00 -7.387516319793E+00 -7.373287162612E+00 -7.357410092809E+00
 -7.339870101873E+00 -7.320654238826E+00 -7.299751487732E+00 -7.277152604962E+00
 -7.252849923968E+00 -7.226837136730E+00 -7.199109062044E+00 -7.169661411316E+00
 -7.138490562568E+00 -7.105593352968E+00 -7.070966899422E+00 -7.034608455793E+00
 -6.996515314107E+00 -6.956684755992E+00 -6.915114059410E+00 -6.871800564825E+00
 -6.826741804154E+00 -6.779935695281E+00 -6.731380804589E+00 -6.681076679758E+00
 -6.629024255081E+00 -6.575226331531E+00 -6.519688133861E+00 -6.462417946980E+00
 -6.403427833604E+00 -6.342734434815E+00 -6.280359854437E+00 -6.216332627091E+00
 -6.150688768376E+00 -6.083472903714E+00 -6.014739470038E+00 -5.944553981560E+00
 -5.872994347418E+00 -5.800152224897E+00 -5.726134387263E+00 -5.651064080029E+00
 -5.575082333650E+00 -5.498349194431E+00 -5.421044828878E+00 -5.343370450076E+00
 -5.265549008199E+00 -5.187825581372E+00 -5.110467398212E+00 -5.033763420211E+00
 -4.958023411168E+00 -4.883576422568E+00 -4.810768629266E+00 -4.739960459942E+00